{"jeopardy":[{"category":"FOREIGN CITIES","clues":[{"value":200,"category":"FOREIGN CITIES","clue":"Name of French national anthem comes from the name of this French city","answer":"Marseille","daily_double?":false},{"value":400,"category":"FOREIGN CITIES","clue":"Noted for its Harbour Bridge & shell-shaped opera house","answer":"Sydney","daily_double?":false},{"value":600,"category":"FOREIGN CITIES","clue":"Its baseball team is named for '67 World's Fair held there","answer":"Montreal","daily_double?":true},{"value":800,"category":"FOREIGN CITIES","clue":"Black urban complex outside Johannesburg, acronym of South Western Townships","answer":"Soweto","daily_double?":false},{"value":1000,"category":"FOREIGN CITIES","clue":"Chinese city that's a Portuguese colony","answer":"Macau","daily_double?":false}]},{"category":"POTENT POTABLES","clues":[{"value":200,"category":"POTENT POTABLES","clue":"French word for a drink or wine taken as an appetizer","answer":"aperitif","daily_double?":false},{"value":400,"category":"POTENT POTABLES","clue":"It's what makes a whiskey sour, sour","answer":"lemon juice","daily_double?":false},{"value":600,"category":"POTENT POTABLES","clue":"","answer":"","daily_double?":false},{"value":800,"category":"POTENT POTABLES","clue":"","answer":"","daily_double?":false},{"value":1000,"category":"POTENT POTABLES","clue":"","answer":"","daily_double?":false}]},{"category":"ETIQUETTE","clues":[{"value":200,"category":"ETIQUETTE","clue":"At the theater they should still take the aisle seat","answer":"men","daily_double?":false},{"value":400,"category":"ETIQUETTE","clue":"2-letter title many modern women prefer","answer":"Ms.","daily_double?":false},{"value":600,"category":"ETIQUETTE","clue":"Standard tip for a flight attendant","answer":"nothing","daily_double?":false},{"value":800,"category":"ETIQUETTE","clue":"","answer":"","daily_double?":false},{"value":1000,"category":"ETIQUETTE","clue":"","answer":"","daily_double?":false}]},{"category":"TELEVISION","clues":[{"value":200,"category":"TELEVISION","clue":"Traded his female finery on \"M*A*S*H\" for a suit & tie on \"AfterMASH\"","answer":"Jamie Farr","daily_double?":false},{"value":400,"category":"TELEVISION","clue":"Meredith Baxter Birney is hippie mom to straight-laced Michael Fox in this series","answer":"Family Ties","daily_double?":false},{"value":600,"category":"TELEVISION","clue":"Left his \"Prairie\" home for a \"Highway to Heaven\"","answer":"Michael Landon","daily_double?":false},{"value":800,"category":"TELEVISION","clue":"Toothsome twosome who are \"Partners in Crime\" this season on NBC","answer":"Lynda Carter & Loni Anderson","daily_double?":false},{"value":1000,"category":"TELEVISION","clue":"Though she lost her \"Hart\", she stars in miniseries \"Mistral's Daughter\"","answer":"Stefanie Powers","daily_double?":false}]},{"category":"FLAGS","clues":[{"value":200,"category":"FLAGS","clue":"Since '64 it's waved for Richard Petty 7 times at Daytona","answer":"the checkered flag","daily_double?":false},{"value":400,"category":"FLAGS","clue":"Monochromatic flag appropriate for Lee at Appomattox & Napoleon at Waterloo","answer":"a white flag","daily_double?":false},{"value":600,"category":"FLAGS","clue":"The only state flag with a picture of George Washington","answer":"Washington","daily_double?":false},{"value":800,"category":"FLAGS","clue":"It bears the crosses of St. Andrew, St. George & St. Patrick","answer":"the Union Jack (the flag of Great Britain)","daily_double?":false},{"value":1000,"category":"FLAGS","clue":"System of signaling using handheld flags","answer":"the semaphore","daily_double?":false}]},{"category":"\"CAT\"EGORY","clues":[{"value":200,"category":"\"CAT\"EGORY","clue":"Chapeau-ed Dr. Seuss' hero","answer":"the Cat in the Hat","daily_double?":false},{"value":400,"category":"\"CAT\"EGORY","clue":"Fingered game with a loop of string","answer":"cat's cradle","daily_double?":false},{"value":600,"category":"\"CAT\"EGORY","clue":"Felonious felines, Batman!  She's been played by 3 different actresses","answer":"the Catwoman","daily_double?":false},{"value":800,"category":"\"CAT\"EGORY","clue":"","answer":"","daily_double?":false},{"value":1000,"category":"\"CAT\"EGORY","clue":"","answer":"","daily_double?":false}]}],"comments":"Game entered from audiorecording. Missing prizes.","contestants":["Alan Weiner","Veronica Gonzalez Rubio","Richard Landon"],"categories":{"jeopardy":["FOREIGN CITIES","POTENT POTABLES","ETIQUETTE","TELEVISION","FLAGS","\"CAT\"EGORY"],"double_jeopardy":["CHEMISTRY","WORLD WAR II","WOMEN","SPORTS","PRESIDENTS","THE BIG TOP"],"final_jeopardy":"DANCE"},"season":"1","air_date":"1984-11-22","double_jeopardy":[{"category":"CHEMISTRY","clues":[{"value":400,"category":"CHEMISTRY","clue":"Boiling point of H2O on the Celsius scale","answer":"100 degrees","daily_double?":false},{"value":800,"category":"CHEMISTRY","clue":"Primary gas component in air","answer":"nitrogen","daily_double?":false},{"value":1200,"category":"CHEMISTRY","clue":"Chart of elements arranged by atomic number","answer":"the periodic table","daily_double?":false},{"value":1600,"category":"CHEMISTRY","clue":"Sodium hydroxide used in making pretzels & unclogging drains","answer":"lye","daily_double?":false},{"value":2000,"category":"CHEMISTRY","clue":"Neutral number on the pH scale","answer":"7","daily_double?":false}]},{"category":"WORLD WAR II","clues":[{"value":400,"category":"WORLD WAR II","clue":"Second A-bomb used in the war used on this city","answer":"Nagasaki","daily_double?":false},{"value":800,"category":"WORLD WAR II","clue":"In '43 this country quit the Axis & declared war on Germany","answer":"Italy","daily_double?":false},{"value":1200,"category":"WORLD WAR II","clue":"It took 5 destroyers, 2 battleships, a cruiser & air assistance to sink this German battleship","answer":"the Bismarck","daily_double?":false},{"value":1600,"category":"WORLD WAR II","clue":"Under Hitler Joseph Goebbels was minister of this","answer":"propaganda","daily_double?":false},{"value":2000,"category":"WORLD WAR II","clue":"After betraying Norway to the Nazis, his name became synonymous with traitor","answer":"(Vidkun) Quisling","daily_double?":false}]},{"category":"WOMEN","clues":[{"value":400,"category":"WOMEN","clue":"Newsweek described her as proving gymnasts don't all have to be anorexic","answer":"Mary Lou Retton","daily_double?":false},{"value":800,"category":"WOMEN","clue":"Molly Pitcher was awarded a pension for having fought in this war","answer":"the Revolutionary War","daily_double?":false},{"value":1200,"category":"WOMEN","clue":"Earned law degree at age 54 after having founded an Eagle Forum & stopped ERA","answer":"Phyllis Schlafly","daily_double?":false},{"value":1600,"category":"WOMEN","clue":"Largest American city to ever have a woman mayor","answer":"Chicago","daily_double?":true},{"value":2000,"category":"WOMEN","clue":"Author of \"The Feminine Mystique\"; many consider her the founder of women's lib movement","answer":"Betty Friedan","daily_double?":false}]},{"category":"SPORTS","clues":[{"value":400,"category":"SPORTS","clue":"Number of games to win a normal set in tennis","answer":"6","daily_double?":false},{"value":800,"category":"SPORTS","clue":"Indoor sport dominated by Willie Mosconi from 1941-57","answer":"billiards (pool)","daily_double?":false},{"value":1200,"category":"SPORTS","clue":"Number of completed innings which make a baseball game official","answer":"5","daily_double?":false},{"value":1600,"category":"SPORTS","clue":"Though goaltending in hockey is essential, in this sport it's illegal","answer":"basketball","daily_double?":false},{"value":2000,"category":"SPORTS","clue":"Length of a polo field","answer":"300 yards","daily_double?":false}]},{"category":"PRESIDENTS","clues":[{"value":400,"category":"PRESIDENTS","clue":"Number of presidents born outside North America","answer":"none","daily_double?":false},{"value":800,"category":"PRESIDENTS","clue":"William Henry Harrison's grandson who was also a president","answer":"Benjamin Harrison","daily_double?":false},{"value":1200,"category":"PRESIDENTS","clue":"When the Gregorian calendar was adopted his birth date changed from Feb. 11 to Feb. 22","answer":"George Washington","daily_double?":false},{"value":1600,"category":"PRESIDENTS","clue":"1st president to wear a beard","answer":"Abraham Lincoln","daily_double?":false},{"value":2000,"category":"PRESIDENTS","clue":"\"Rough & Ready\" president whose son-in-law was pres. of the Confederacy","answer":"President Zachary Taylor","daily_double?":true}]},{"category":"THE BIG TOP","clues":[{"value":400,"category":"THE BIG TOP","clue":"Barnum's famous pachyderm he said died on railroad tracks to save a friend","answer":"Jumbo","daily_double?":false},{"value":800,"category":"THE BIG TOP","clue":"","answer":"","daily_double?":false},{"value":1200,"category":"THE BIG TOP","clue":"","answer":"","daily_double?":false},{"value":1600,"category":"THE BIG TOP","clue":"","answer":"","daily_double?":false},{"value":2000,"category":"THE BIG TOP","clue":"","answer":"","daily_double?":false}]}],"final_jeopardy":{"category":"DANCE","clue":"Balanchine called him \"the most interesting, inventive & elegant dancer of our time\"","answer":"Fred Astaire"}}