{"comments":"Game entered from audiorecording. Missing prizes.","jeopardy":[{"category":"FOREIGN CITIES","clues":[{"value":200,"category":"FOREIGN CITIES","answer":"Marseille","clue":"Name of French national anthem comes from the name of this French city","daily_double?":false},{"value":400,"category":"FOREIGN CITIES","answer":"Sydney","clue":"Noted for its Harbour Bridge & shell-shaped opera house","daily_double?":false},{"value":600,"category":"FOREIGN CITIES","answer":"Montreal","clue":"Its baseball team is named for '67 World's Fair held there","daily_double?":true},{"value":800,"category":"FOREIGN CITIES","answer":"Soweto","clue":"Black urban complex outside Johannesburg, acronym of South Western Townships","daily_double?":false},{"value":1000,"category":"FOREIGN CITIES","answer":"Macau","clue":"Chinese city that's a Portuguese colony","daily_double?":false}]},{"category":"POTENT POTABLES","clues":[{"value":200,"category":"POTENT POTABLES","answer":"aperitif","clue":"French word for a drink or wine taken as an appetizer","daily_double?":false},{"value":400,"category":"POTENT POTABLES","answer":"lemon juice","clue":"It's what makes a whiskey sour, sour","daily_double?":false},{"value":600,"category":"POTENT POTABLES","answer":"","clue":"","daily_double?":false},{"value":800,"category":"POTENT POTABLES","answer":"","clue":"","daily_double?":false},{"value":1000,"category":"POTENT POTABLES","answer":"","clue":"","daily_double?":false}]},{"category":"ETIQUETTE","clues":[{"value":200,"category":"ETIQUETTE","answer":"men","clue":"At the theater they should still take the aisle seat","daily_double?":false},{"value":400,"category":"ETIQUETTE","answer":"Ms.","clue":"2-letter title many modern women prefer","daily_double?":false},{"value":600,"category":"ETIQUETTE","answer":"nothing","clue":"Standard tip for a flight attendant","daily_double?":false},{"value":800,"category":"ETIQUETTE","answer":"","clue":"","daily_double?":false},{"value":1000,"category":"ETIQUETTE","answer":"","clue":"","daily_double?":false}]},{"category":"TELEVISION","clues":[{"value":200,"category":"TELEVISION","answer":"Jamie Farr","clue":"Traded his female finery on \"M*A*S*H\" for a suit & tie on \"AfterMASH\"","daily_double?":false},{"value":400,"category":"TELEVISION","answer":"Family Ties","clue":"Meredith Baxter Birney is hippie mom to straight-laced Michael Fox in this series","daily_double?":false},{"value":600,"category":"TELEVISION","answer":"Michael Landon","clue":"Left his \"Prairie\" home for a \"Highway to Heaven\"","daily_double?":false},{"value":800,"category":"TELEVISION","answer":"Lynda Carter & Loni Anderson","clue":"Toothsome twosome who are \"Partners in Crime\" this season on NBC","daily_double?":false},{"value":1000,"category":"TELEVISION","answer":"Stefanie Powers","clue":"Though she lost her \"Hart\", she stars in miniseries \"Mistral's Daughter\"","daily_double?":false}]},{"category":"FLAGS","clues":[{"value":200,"category":"FLAGS","answer":"the checkered flag","clue":"Since '64 it's waved for Richard Petty 7 times at Daytona","daily_double?":false},{"value":400,"category":"FLAGS","answer":"a white flag","clue":"Monochromatic flag appropriate for Lee at Appomattox & Napoleon at Waterloo","daily_double?":false},{"value":600,"category":"FLAGS","answer":"Washington","clue":"The only state flag with a picture of George Washington","daily_double?":false},{"value":800,"category":"FLAGS","answer":"the Union Jack (the flag of Great Britain)","clue":"It bears the crosses of St. Andrew, St. George & St. Patrick","daily_double?":false},{"value":1000,"category":"FLAGS","answer":"the semaphore","clue":"System of signaling using handheld flags","daily_double?":false}]},{"category":"\"CAT\"EGORY","clues":[{"value":200,"category":"\"CAT\"EGORY","answer":"the Cat in the Hat","clue":"Chapeau-ed Dr. Seuss' hero","daily_double?":false},{"value":400,"category":"\"CAT\"EGORY","answer":"cat's cradle","clue":"Fingered game with a loop of string","daily_double?":false},{"value":600,"category":"\"CAT\"EGORY","answer":"the Catwoman","clue":"Felonious felines, Batman!  She's been played by 3 different actresses","daily_double?":false},{"value":800,"category":"\"CAT\"EGORY","answer":"","clue":"","daily_double?":false},{"value":1000,"category":"\"CAT\"EGORY","answer":"","clue":"","daily_double?":false}]}],"air_date":"1984-11-22","double_jeopardy":[{"category":"CHEMISTRY","clues":[{"value":400,"category":"CHEMISTRY","answer":"100 degrees","clue":"Boiling point of H2O on the Celsius scale","daily_double?":false},{"value":800,"category":"CHEMISTRY","answer":"nitrogen","clue":"Primary gas component in air","daily_double?":false},{"value":1200,"category":"CHEMISTRY","answer":"the periodic table","clue":"Chart of elements arranged by atomic number","daily_double?":false},{"value":1600,"category":"CHEMISTRY","answer":"lye","clue":"Sodium hydroxide used in making pretzels & unclogging drains","daily_double?":false},{"value":2000,"category":"CHEMISTRY","answer":"7","clue":"Neutral number on the pH scale","daily_double?":false}]},{"category":"WORLD WAR II","clues":[{"value":400,"category":"WORLD WAR II","answer":"Nagasaki","clue":"Second A-bomb used in the war used on this city","daily_double?":false},{"value":800,"category":"WORLD WAR II","answer":"Italy","clue":"In '43 this country quit the Axis & declared war on Germany","daily_double?":false},{"value":1200,"category":"WORLD WAR II","answer":"the Bismarck","clue":"It took 5 destroyers, 2 battleships, a cruiser & air assistance to sink this German battleship","daily_double?":false},{"value":1600,"category":"WORLD WAR II","answer":"propaganda","clue":"Under Hitler Joseph Goebbels was minister of this","daily_double?":false},{"value":2000,"category":"WORLD WAR II","answer":"(Vidkun) Quisling","clue":"After betraying Norway to the Nazis, his name became synonymous with traitor","daily_double?":false}]},{"category":"WOMEN","clues":[{"value":400,"category":"WOMEN","answer":"Mary Lou Retton","clue":"Newsweek described her as proving gymnasts don't all have to be anorexic","daily_double?":false},{"value":800,"category":"WOMEN","answer":"the Revolutionary War","clue":"Molly Pitcher was awarded a pension for having fought in this war","daily_double?":false},{"value":1200,"category":"WOMEN","answer":"Phyllis Schlafly","clue":"Earned law degree at age 54 after having founded an Eagle Forum & stopped ERA","daily_double?":false},{"value":1600,"category":"WOMEN","answer":"Chicago","clue":"Largest American city to ever have a woman mayor","daily_double?":true},{"value":2000,"category":"WOMEN","answer":"Betty Friedan","clue":"Author of \"The Feminine Mystique\"; many consider her the founder of women's lib movement","daily_double?":false}]},{"category":"SPORTS","clues":[{"value":400,"category":"SPORTS","answer":"6","clue":"Number of games to win a normal set in tennis","daily_double?":false},{"value":800,"category":"SPORTS","answer":"billiards (pool)","clue":"Indoor sport dominated by Willie Mosconi from 1941-57","daily_double?":false},{"value":1200,"category":"SPORTS","answer":"5","clue":"Number of completed innings which make a baseball game official","daily_double?":false},{"value":1600,"category":"SPORTS","answer":"basketball","clue":"Though goaltending in hockey is essential, in this sport it's illegal","daily_double?":false},{"value":2000,"category":"SPORTS","answer":"300 yards","clue":"Length of a polo field","daily_double?":false}]},{"category":"PRESIDENTS","clues":[{"value":400,"category":"PRESIDENTS","answer":"none","clue":"Number of presidents born outside North America","daily_double?":false},{"value":800,"category":"PRESIDENTS","answer":"Benjamin Harrison","clue":"William Henry Harrison's grandson who was also a president","daily_double?":false},{"value":1200,"category":"PRESIDENTS","answer":"George Washington","clue":"When the Gregorian calendar was adopted his birth date changed from Feb. 11 to Feb. 22","daily_double?":false},{"value":1600,"category":"PRESIDENTS","answer":"Abraham Lincoln","clue":"1st president to wear a beard","daily_double?":false},{"value":2000,"category":"PRESIDENTS","answer":"President Zachary Taylor","clue":"\"Rough & Ready\" president whose son-in-law was pres. of the Confederacy","daily_double?":true}]},{"category":"THE BIG TOP","clues":[{"value":400,"category":"THE BIG TOP","answer":"Jumbo","clue":"Barnum's famous pachyderm he said died on railroad tracks to save a friend","daily_double?":false},{"value":800,"category":"THE BIG TOP","answer":"","clue":"","daily_double?":false},{"value":1200,"category":"THE BIG TOP","answer":"","clue":"","daily_double?":false},{"value":1600,"category":"THE BIG TOP","answer":"","clue":"","daily_double?":false},{"value":2000,"category":"THE BIG TOP","answer":"","clue":"","daily_double?":false}]}],"final_jeopardy":{"category":"DANCE","answer":"Fred Astaire","clue":"Balanchine called him \"the most interesting, inventive & elegant dancer of our time\""},"categories":{"jeopardy":["FOREIGN CITIES","POTENT POTABLES","ETIQUETTE","TELEVISION","FLAGS","\"CAT\"EGORY"],"double_jeopardy":["CHEMISTRY","WORLD WAR II","WOMEN","SPORTS","PRESIDENTS","THE BIG TOP"],"final_jeopardy":"DANCE"},"contestants":["Alan Weiner","Veronica Gonzalez Rubio","Richard Landon"]}